
; Energy minimization for solvated system
integrator          = steep
nsteps              = 50000
emtol               = 2000
emstep              = 0.01

; Output control
nstlog              = 100
nstenergy           = 100

; Neighbor searching
cutoff-scheme       = Verlet
nstlist             = 10
ns_type             = grid
rlist               = 1.2

; Electrostatics
coulombtype         = reaction-field
rcoulomb            = 1.1
epsilon_r           = 15

; van der Waals
vdwtype             = Cut-off
vdw_modifier        = Force-switch
rvdw                = 1.1
rvdw_switch         = 0.9

; Temperature and pressure coupling
Tcoupl              = no
Pcoupl              = no

; Velocity generation
gen_vel             = no

; Constraints
constraints         = none

; Periodic boundary conditions
pbc                 = xyz
